<?xml version="1.0" encoding="UTF-8"?>

<!-- generated on 2025-02-21 11:51:58 by Eclipse SUMO GUI Version 1.21.0
<sumoConfiguration xmlns:xsi="http://www.w3.org/2001/XMLSchema-instance" xsi:noNamespaceSchemaLocation="http://sumo.dlr.de/xsd/sumoConfiguration.xsd">

    <input>
        <net-file value="BolognaScenario/acosta_buslanes.net.xml"/>
        <route-files value="BolognaScenario/acosta.rou.xml,BolognaScenario/acosta_busses.rou.xml"/>
        <additional-files value="BolognaScenario/acosta_vtypes.add.xml,BolognaScenario/acosta_detectors.add.xml,BolognaScenario/acosta_bus_stops.add.xml,BolognaScenario/acosta_tls.add.xml"/>
    </input>

    <output>
        <tripinfo-output value="BolognaScenario/tripinfos.xml"/>
    </output>

    <time>
        <step-length value="0.5"/>
    </time>

    <report>
        <log value="BolognaScenario/sumo_log.txt"/>
        <no-step-log value="true"/>
    </report>

    <traci_server>
        <remote-port value="50355"/>
    </traci_server>

    <gui_only>
        <gui-settings-file value="BolognaScenario/settings.gui.xml"/>
        <quit-on-end value="True"/>
        <start value="true"/>
        <delay value="75"/>
    </gui_only>

</sumoConfiguration>
-->

<tripinfos xmlns:xsi="http://www.w3.org/2001/XMLSchema-instance" xsi:noNamespaceSchemaLocation="http://sumo.dlr.de/xsd/tripinfo_file.xsd">
    <tripinfo id="Pepoli_8_16" depart="27.00" departLane="210_0" departPos="0.00" departSpeed="0.00" departDelay="0.00" arrival="81.50" arrivalLane="134b_0" arrivalPos="156.17" arrivalSpeed="15.07" duration="54.50" routeLength="692.71" waitingTime="0.00" waitingCount="0" stopTime="0.00" timeLoss="7.47" rerouteNo="0" devices="tripinfo_Pepoli_8_16" vType="passenger1" speedFactor="1.09" vaporized=""/>
    <tripinfo id="Pepoli_8_21" depart="36.00" departLane="210_0" departPos="0.00" departSpeed="0.00" departDelay="0.00" arrival="90.00" arrivalLane="134b_0" arrivalPos="156.17" arrivalSpeed="17.32" duration="54.00" routeLength="692.71" waitingTime="0.00" waitingCount="0" stopTime="0.00" timeLoss="12.80" rerouteNo="0" devices="tripinfo_Pepoli_8_21" vType="passenger1" speedFactor="1.25" vaporized=""/>
    <tripinfo id="Pepoli_8_23" depart="39.00" departLane="210_0" departPos="0.00" departSpeed="0.00" departDelay="0.00" arrival="93.00" arrivalLane="134b_0" arrivalPos="156.17" arrivalSpeed="15.46" duration="54.00" routeLength="692.71" waitingTime="0.00" waitingCount="0" stopTime="0.00" timeLoss="9.18" rerouteNo="0" devices="tripinfo_Pepoli_8_23" vType="passenger1" speedFactor="1.13" vaporized=""/>
    <tripinfo id="Togliatti_2_8" depart="11.00" departLane="85_0" departPos="0.00" departSpeed="0.00" departDelay="0.00" arrival="98.00" arrivalLane="77[1][1]_0" arrivalPos="463.98" arrivalSpeed="14.86" duration="87.00" routeLength="1145.48" waitingTime="0.00" waitingCount="0" stopTime="0.00" timeLoss="10.54" rerouteNo="0" devices="tripinfo_Togliatti_2_8" vType="passenger2a" speedFactor="1.10" vaporized=""/>
    <tripinfo id="Pepoli_8_25" depart="42.00" departLane="210_0" departPos="0.00" departSpeed="0.00" departDelay="0.00" arrival="100.00" arrivalLane="134b_0" arrivalPos="156.17" arrivalSpeed="13.85" duration="58.00" routeLength="692.71" waitingTime="0.00" waitingCount="0" stopTime="0.00" timeLoss="8.51" rerouteNo="0" devices="tripinfo_Pepoli_8_25" vType="passenger2a" speedFactor="1.03" vaporized=""/>
    <tripinfo id="Costa_1_4" depart="13.50" departLane="78[0]_0" departPos="0.00" departSpeed="0.00" departDelay="3.50" arrival="112.00" arrivalLane="86_2" arrivalPos="321.19" arrivalSpeed="13.49" duration="98.50" routeLength="1185.38" waitingTime="0.00" waitingCount="0" stopTime="0.00" timeLoss="10.85" rerouteNo="0" devices="tripinfo_Costa_1_4" vType="passenger2a" speedFactor="0.99" vaporized=""/>
    <tripinfo id="Costa_1_2" depart="8.50" departLane="78[0]_0" departPos="0.00" departSpeed="0.00" departDelay="3.50" arrival="112.50" arrivalLane="86_1" arrivalPos="321.19" arrivalSpeed="14.10" duration="104.00" routeLength="1191.74" waitingTime="6.50" waitingCount="1" stopTime="0.00" timeLoss="18.05" rerouteNo="0" devices="tripinfo_Costa_1_2" vType="passenger2b" speedFactor="1.02" vaporized=""/>
    <tripinfo id="Costa_12_0" depart="0.00" departLane="78[0]_0" departPos="0.00" departSpeed="0.00" departDelay="0.00" arrival="113.50" arrivalLane="136_0" arrivalPos="186.20" arrivalSpeed="14.92" duration="113.50" routeLength="1416.45" waitingTime="0.00" waitingCount="0" stopTime="0.00" timeLoss="16.71" rerouteNo="0" devices="tripinfo_Costa_12_0" vType="passenger1" speedFactor="1.08" vaporized=""/>
    <tripinfo id="Costa_12_1" depart="6.50" departLane="78[0]_0" departPos="0.00" departSpeed="0.00" departDelay="4.50" arrival="116.50" arrivalLane="136_0" arrivalPos="186.20" arrivalSpeed="14.98" duration="110.00" routeLength="1416.45" waitingTime="0.00" waitingCount="0" stopTime="0.00" timeLoss="13.93" rerouteNo="0" devices="tripinfo_Costa_12_1" vType="passenger2b" speedFactor="1.09" vaporized=""/>
    <tripinfo id="Audinot_7_0" depart="0.00" departLane="131_0" departPos="0.00" departSpeed="0.00" departDelay="0.00" arrival="124.00" arrivalLane="209_0" arrivalPos="395.59" arrivalSpeed="13.40" duration="124.00" routeLength="873.23" waitingTime="46.50" waitingCount="1" stopTime="0.00" timeLoss="57.63" rerouteNo="0" devices="tripinfo_Audinot_7_0" vType="passenger4" speedFactor="0.98" vaporized=""/>
    <tripinfo id="Costa_3_21" depart="54.50" departLane="78[0]_0" departPos="0.00" departSpeed="0.00" departDelay="0.50" arrival="125.50" arrivalLane="14_0" arrivalPos="77.26" arrivalSpeed="15.06" duration="71.00" routeLength="850.23" waitingTime="0.00" waitingCount="0" stopTime="0.00" timeLoss="15.50" rerouteNo="0" devices="tripinfo_Costa_3_21" vType="passenger1" speedFactor="1.13" vaporized=""/>
    <tripinfo id="Costa_12_3" depart="11.00" departLane="78[0]_0" departPos="0.00" departSpeed="0.00" departDelay="4.00" arrival="126.00" arrivalLane="136_0" arrivalPos="186.20" arrivalSpeed="13.85" duration="115.00" routeLength="1413.62" waitingTime="0.00" waitingCount="0" stopTime="0.00" timeLoss="10.99" rerouteNo="0" devices="tripinfo_Costa_12_3" vType="passenger1" speedFactor="1.01" vaporized=""/>
    <tripinfo id="Costa_12_7" depart="18.00" departLane="78[0]_0" departPos="0.00" departSpeed="0.00" departDelay="0.00" arrival="130.00" arrivalLane="136_0" arrivalPos="186.20" arrivalSpeed="15.27" duration="112.00" routeLength="1416.45" waitingTime="0.00" waitingCount="0" stopTime="0.00" timeLoss="16.90" rerouteNo="0" devices="tripinfo_Costa_12_7" vType="passenger5" speedFactor="1.10" vaporized=""/>
    <tripinfo id="Turati_3_2" depart="69.00" departLane="195_0" departPos="0.00" departSpeed="0.00" departDelay="0.00" arrival="147.00" arrivalLane="14_0" arrivalPos="77.26" arrivalSpeed="13.63" duration="78.00" routeLength="947.57" waitingTime="0.00" waitingCount="0" stopTime="0.00" timeLoss="8.66" rerouteNo="0" devices="tripinfo_Turati_3_2" vType="ignoring1" speedFactor="1.00" vaporized=""/>
    <tripinfo id="Costa_12_9" depart="23.00" departLane="78[0]_0" departPos="0.00" departSpeed="0.00" departDelay="0.00" arrival="150.00" arrivalLane="136_0" arrivalPos="186.20" arrivalSpeed="12.16" duration="127.00" routeLength="1416.45" waitingTime="0.00" waitingCount="0" stopTime="0.00" timeLoss="12.12" rerouteNo="0" devices="tripinfo_Costa_12_9" vType="passenger3" speedFactor="0.91" vaporized=""/>
    <tripinfo id="Pepoli_8_28" depart="48.00" departLane="210_0" departPos="0.00" departSpeed="0.00" departDelay="0.00" arrival="152.00" arrivalLane="134b_0" arrivalPos="156.17" arrivalSpeed="15.24" duration="104.00" routeLength="692.71" waitingTime="42.00" waitingCount="1" stopTime="0.00" timeLoss="58.78" rerouteNo="0" devices="tripinfo_Pepoli_8_28" vType="passenger3" speedFactor="1.13" vaporized=""/>
    <tripinfo id="Pepoli_3_0" depart="0.00" departLane="210_2" departPos="0.00" departSpeed="0.00" departDelay="0.00" arrival="152.50" arrivalLane="14_0" arrivalPos="77.26" arrivalSpeed="13.69" duration="152.50" routeLength="1941.55" waitingTime="0.00" waitingCount="0" stopTime="0.00" timeLoss="10.62" rerouteNo="0" devices="tripinfo_Pepoli_3_0" vType="ignoring2b" speedFactor="1.00" vaporized=""/>
    <tripinfo id="Pepoli_3_2" depart="3.00" departLane="210_2" departPos="0.00" departSpeed="0.00" departDelay="0.00" arrival="155.50" arrivalLane="14_0" arrivalPos="77.26" arrivalSpeed="13.28" duration="152.50" routeLength="1941.55" waitingTime="0.00" waitingCount="0" stopTime="0.00" timeLoss="10.23" rerouteNo="0" devices="tripinfo_Pepoli_3_2" vType="ignoring1" speedFactor="1.00" vaporized=""/>
    <tripinfo id="Silvani_11_9" depart="21.00" departLane="203[0]_0" departPos="0.00" departSpeed="0.00" departDelay="0.00" arrival="155.50" arrivalLane="114_1" arrivalPos="692.70" arrivalSpeed="15.92" duration="134.50" routeLength="1114.25" waitingTime="44.50" waitingCount="1" stopTime="0.00" timeLoss="64.38" rerouteNo="0" devices="tripinfo_Silvani_11_9" vType="passenger4" speedFactor="1.15" vaporized=""/>
    <tripinfo id="bus_81_0" depart="4.00" departLane="55_0" departPos="0.00" departSpeed="0.00" departDelay="4.00" arrival="157.00" arrivalLane="114_0" arrivalPos="692.70" arrivalSpeed="13.70" duration="153.00" routeLength="1058.08" waitingTime="12.00" waitingCount="2" stopTime="40.00" timeLoss="36.39" rerouteNo="0" devices="tripinfo_bus_81_0" vType="bus" speedFactor="1.00" vaporized=""/>
    <tripinfo id="bus_13_0" depart="0.00" departLane="55_0" departPos="0.00" departSpeed="0.00" departDelay="0.00" arrival="158.00" arrivalLane="114_1" arrivalPos="692.70" arrivalSpeed="13.38" duration="158.00" routeLength="1058.08" waitingTime="21.00" waitingCount="1" stopTime="40.00" timeLoss="41.58" rerouteNo="0" devices="tripinfo_bus_13_0" vType="bus" speedFactor="1.00" vaporized=""/>
    <tripinfo id="Togliatti_12_15" depart="21.00" departLane="85_2" departPos="0.00" departSpeed="0.00" departDelay="0.00" arrival="158.00" arrivalLane="136_0" arrivalPos="186.20" arrivalSpeed="12.87" duration="137.00" routeLength="909.95" waitingTime="53.00" waitingCount="1" stopTime="0.00" timeLoss="64.87" rerouteNo="0" devices="tripinfo_Togliatti_12_15" vType="passenger3" speedFactor="0.94" vaporized=""/>
    <tripinfo id="Togliatti_12_24" depart="34.00" departLane="85_2" departPos="0.00" departSpeed="0.00" departDelay="0.00" arrival="160.00" arrivalLane="136_0" arrivalPos="186.20" arrivalSpeed="13.11" duration="126.00" routeLength="909.95" waitingTime="39.00" waitingCount="1" stopTime="0.00" timeLoss="55.19" rerouteNo="0" devices="tripinfo_Togliatti_12_24" vType="passenger1" speedFactor="0.95" vaporized=""/>
    <tripinfo id="Silvani_11_1" depart="2.50" departLane="203[0]_0" departPos="0.00" departSpeed="0.00" departDelay="0.50" arrival="161.00" arrivalLane="114_0" arrivalPos="692.70" arrivalSpeed="12.29" duration="158.50" routeLength="1114.25" waitingTime="56.00" waitingCount="1" stopTime="0.00" timeLoss="71.12" rerouteNo="0" devices="tripinfo_Silvani_11_1" vType="passenger2b" speedFactor="0.92" vaporized=""/>
    <tripinfo id="Silvani_11_13" depart="30.50" departLane="203[0]_0" departPos="0.00" departSpeed="0.00" departDelay="0.50" arrival="161.00" arrivalLane="114_2" arrivalPos="692.70" arrivalSpeed="14.03" duration="130.50" routeLength="1114.25" waitingTime="37.50" waitingCount="1" stopTime="0.00" timeLoss="54.14" rerouteNo="0" devices="tripinfo_Silvani_11_13" vType="passenger1" speedFactor="1.06" vaporized=""/>
    <tripinfo id="Pepoli_10_10" depart="17.00" departLane="210_0" departPos="0.00" departSpeed="0.00" departDelay="0.00" arrival="161.50" arrivalLane="204[1][1]_1" arrivalPos="435.51" arrivalSpeed="15.77" duration="144.50" routeLength="1470.65" waitingTime="30.50" waitingCount="1" stopTime="0.00" timeLoss="53.91" rerouteNo="0" devices="tripinfo_Pepoli_10_10" vType="passenger2a" speedFactor="1.17" vaporized=""/>
    <tripinfo id="Togliatti_12_48" depart="68.00" departLane="85_2" departPos="0.00" departSpeed="0.00" departDelay="0.00" arrival="161.50" arrivalLane="136_0" arrivalPos="186.20" arrivalSpeed="14.36" duration="93.50" routeLength="909.95" waitingTime="7.50" waitingCount="1" stopTime="0.00" timeLoss="28.47" rerouteNo="0" devices="tripinfo_Togliatti_12_48" vType="passenger2a" speedFactor="1.04" vaporized=""/>
    <tripinfo id="Togliatti_12_59" depart="84.00" departLane="85_2" departPos="0.00" departSpeed="0.00" departDelay="0.00" arrival="163.00" arrivalLane="136_0" arrivalPos="186.20" arrivalSpeed="14.98" duration="79.00" routeLength="909.95" waitingTime="0.00" waitingCount="0" stopTime="0.00" timeLoss="18.71" rerouteNo="0" devices="tripinfo_Togliatti_12_59" vType="passenger1" speedFactor="1.12" vaporized=""/>
    <tripinfo id="Silvani_11_8" depart="18.00" departLane="203[0]_0" departPos="0.00" departSpeed="0.00" departDelay="0.00" arrival="163.50" arrivalLane="114_2" arrivalPos="692.70" arrivalSpeed="13.17" duration="145.50" routeLength="1114.25" waitingTime="45.50" waitingCount="1" stopTime="0.00" timeLoss="61.70" rerouteNo="0" devices="tripinfo_Silvani_11_8" vType="passenger3" speedFactor="0.96" vaporized=""/>
    <tripinfo id="Silvani_11_14" depart="33.00" departLane="203[0]_0" departPos="0.00" departSpeed="0.00" departDelay="0.00" arrival="163.50" arrivalLane="114_1" arrivalPos="692.70" arrivalSpeed="15.85" duration="130.50" routeLength="1114.25" waitingTime="36.50" waitingCount="1" stopTime="0.00" timeLoss="59.96" rerouteNo="0" devices="tripinfo_Silvani_11_14" vType="passenger3" speedFactor="1.14" vaporized=""/>
    <tripinfo id="Pepoli_8_44" depart="75.00" departLane="210_0" departPos="0.00" departSpeed="0.00" departDelay="0.00" arrival="164.00" arrivalLane="134b_0" arrivalPos="156.17" arrivalSpeed="11.31" duration="89.00" routeLength="692.71" waitingTime="15.00" waitingCount="1" stopTime="0.00" timeLoss="28.76" rerouteNo="0" devices="tripinfo_Pepoli_8_44" vType="passenger3" speedFactor="0.85" vaporized=""/>
    <tripinfo id="Silvani_11_0" depart="0.00" departLane="203[0]_0" departPos="0.00" departSpeed="0.00" departDelay="0.00" arrival="164.50" arrivalLane="114_0" arrivalPos="692.70" arrivalSpeed="11.40" duration="164.50" routeLength="1114.25" waitingTime="59.00" waitingCount="1" stopTime="0.00" timeLoss="67.65" rerouteNo="0" devices="tripinfo_Silvani_11_0" vType="passenger3" speedFactor="0.83" vaporized=""/>
    <tripinfo id="Silvani_11_12" depart="28.00" departLane="203[0]_0" departPos="0.00" departSpeed="0.00" departDelay="0.00" arrival="165.00" arrivalLane="114_2" arrivalPos="692.70" arrivalSpeed="12.87" duration="137.00" routeLength="1114.25" waitingTime="39.00" waitingCount="1" stopTime="0.00" timeLoss="54.50" rerouteNo="0" devices="tripinfo_Silvani_11_12" vType="passenger2b" speedFactor="0.98" vaporized=""/>
    <tripinfo id="Pepoli_8_48" depart="82.00" departLane="210_0" departPos="0.00" departSpeed="0.00" departDelay="0.00" arrival="165.50" arrivalLane="134b_0" arrivalPos="156.17" arrivalSpeed="14.80" duration="83.50" routeLength="692.71" waitingTime="13.50" waitingCount="1" stopTime="0.00" timeLoss="37.39" rerouteNo="0" devices="tripinfo_Pepoli_8_48" vType="passenger2a" speedFactor="1.11" vaporized=""/>
    <tripinfo id="Silvani_11_16" depart="37.00" departLane="203[0]_0" departPos="0.00" departSpeed="0.00" departDelay="0.00" arrival="166.00" arrivalLane="114_1" arrivalPos="692.70" arrivalSpeed="13.68" duration="129.00" routeLength="1114.25" waitingTime="34.00" waitingCount="1" stopTime="0.00" timeLoss="50.00" rerouteNo="0" devices="tripinfo_Silvani_11_16" vType="passenger3" speedFactor="1.02" vaporized=""/>
    <tripinfo id="XXI_Aprile_2_12" depart="42.00" departLane="13_0" departPos="0.00" departSpeed="0.00" departDelay="0.00" arrival="167.00" arrivalLane="77[1][1]_0" arrivalPos="463.98" arrivalSpeed="14.84" duration="125.00" routeLength="976.81" waitingTime="32.50" waitingCount="3" stopTime="0.00" timeLoss="60.28" rerouteNo="0" devices="tripinfo_XXI_Aprile_2_12" vType="passenger4" speedFactor="1.10" vaporized=""/>
    <tripinfo id="Pepoli_8_51" depart="87.00" departLane="210_0" departPos="0.00" departSpeed="0.00" departDelay="0.00" arrival="167.00" arrivalLane="134b_0" arrivalPos="156.17" arrivalSpeed="12.73" duration="80.00" routeLength="692.71" waitingTime="9.00" waitingCount="1" stopTime="0.00" timeLoss="25.71" rerouteNo="0" devices="tripinfo_Pepoli_8_51" vType="passenger1" speedFactor="0.94" vaporized=""/>
    <tripinfo id="bus_91_0" depart="8.00" departLane="55_0" departPos="0.00" departSpeed="0.00" departDelay="8.00" arrival="168.00" arrivalLane="114_0" arrivalPos="692.70" arrivalSpeed="13.65" duration="160.00" routeLength="1058.08" waitingTime="17.50" waitingCount="1" stopTime="40.00" timeLoss="43.50" rerouteNo="0" devices="tripinfo_bus_91_0" vType="bus" speedFactor="1.00" vaporized=""/>
    <tripinfo id="Silvani_11_24" depart="56.50" departLane="203[0]_0" departPos="0.00" departSpeed="0.00" departDelay="0.50" arrival="168.50" arrivalLane="114_1" arrivalPos="692.70" arrivalSpeed="14.52" duration="112.00" routeLength="1114.25" waitingTime="17.00" waitingCount="1" stopTime="0.00" timeLoss="36.23" rerouteNo="0" devices="tripinfo_Silvani_11_24" vType="passenger1" speedFactor="1.06" vaporized=""/>
    <tripinfo id="Pepoli_10_4" depart="6.00" departLane="210_0" departPos="0.00" departSpeed="0.00" departDelay="0.00" arrival="169.50" arrivalLane="204[1][1]_0" arrivalPos="435.51" arrivalSpeed="11.78" duration="163.50" routeLength="1470.65" waitingTime="34.50" waitingCount="1" stopTime="0.00" timeLoss="44.30" rerouteNo="0" devices="tripinfo_Pepoli_10_4" vType="passenger2b" speedFactor="0.89" vaporized=""/>
    <tripinfo id="Vittorio_Veneto_1_4" depart="18.00" departLane="224[0]_0" departPos="0.00" departSpeed="0.00" departDelay="0.00" arrival="169.50" arrivalLane="86_0" arrivalPos="321.19" arrivalSpeed="13.53" duration="151.50" routeLength="1142.43" waitingTime="55.50" waitingCount="1" stopTime="0.00" timeLoss="67.41" rerouteNo="0" devices="tripinfo_Vittorio_Veneto_1_4" vType="passenger1" speedFactor="1.00" vaporized=""/>
    <tripinfo id="Silvani_11_27" depart="63.00" departLane="203[0]_0" departPos="0.00" departSpeed="0.00" departDelay="0.00" arrival="170.00" arrivalLane="114_2" arrivalPos="692.70" arrivalSpeed="14.75" duration="107.00" routeLength="1114.25" waitingTime="15.00" waitingCount="1" stopTime="0.00" timeLoss="31.74" rerouteNo="0" devices="tripinfo_Silvani_11_27" vType="passenger2a" speedFactor="1.07" vaporized=""/>
    <tripinfo id="Pepoli_10_20" depart="34.00" departLane="210_0" departPos="0.00" departSpeed="0.00" departDelay="0.00" arrival="171.50" arrivalLane="204[1][1]_1" arrivalPos="435.51" arrivalSpeed="12.72" duration="137.50" routeLength="1470.65" waitingTime="12.00" waitingCount="1" stopTime="0.00" timeLoss="27.78" rerouteNo="0" devices="tripinfo_Pepoli_10_20" vType="passenger2a" speedFactor="0.97" vaporized=""/>
    <tripinfo id="Togliatti_71_2" depart="2.50" departLane="85_1" departPos="0.00" departSpeed="0.00" departDelay="0.50" arrival="172.00" arrivalLane="209_0" arrivalPos="395.59" arrivalSpeed="15.12" duration="169.50" routeLength="2025.50" waitingTime="23.00" waitingCount="1" stopTime="0.00" timeLoss="38.85" rerouteNo="0" devices="tripinfo_Togliatti_71_2" vType="passenger1" speedFactor="1.12" vaporized=""/>
    <tripinfo id="Pepoli_10_11" depart="19.50" departLane="210_0" departPos="0.00" departSpeed="0.00" departDelay="1.50" arrival="172.00" arrivalLane="204[1][1]_0" arrivalPos="435.51" arrivalSpeed="11.89" duration="152.50" routeLength="1470.65" waitingTime="18.00" waitingCount="1" stopTime="0.00" timeLoss="34.64" rerouteNo="0" devices="tripinfo_Pepoli_10_11" vType="passenger4" speedFactor="0.90" vaporized=""/>
    <tripinfo id="Silvani_11_17" depart="40.00" departLane="203[0]_0" departPos="0.00" departSpeed="0.00" departDelay="0.00" arrival="172.00" arrivalLane="114_0" arrivalPos="692.70" arrivalSpeed="12.89" duration="132.00" routeLength="1114.25" waitingTime="31.50" waitingCount="1" stopTime="0.00" timeLoss="46.42" rerouteNo="0" devices="tripinfo_Silvani_11_17" vType="passenger3" speedFactor="0.94" vaporized=""/>
    <tripinfo id="Silvani_7_4" depart="9.00" departLane="203[0]_1" departPos="0.00" departSpeed="0.00" departDelay="0.00" arrival="172.50" arrivalLane="209_2" arrivalPos="395.59" arrivalSpeed="15.56" duration="163.50" routeLength="1451.40" waitingTime="56.00" waitingCount="1" stopTime="0.00" timeLoss="72.61" rerouteNo="0" devices="tripinfo_Silvani_7_4" vType="passenger2a" speedFactor="1.15" vaporized=""/>
    <tripinfo id="Silvani_11_32" depart="75.50" departLane="203[0]_0" departPos="0.00" departSpeed="0.00" departDelay="0.50" arrival="172.50" arrivalLane="114_2" arrivalPos="692.70" arrivalSpeed="14.30" duration="97.00" routeLength="1114.25" waitingTime="2.50" waitingCount="1" stopTime="0.00" timeLoss="19.67" rerouteNo="0" devices="tripinfo_Silvani_11_32" vType="passenger5" speedFactor="1.04" vaporized=""/>
    <tripinfo id="Pepoli_8_62" depart="106.00" departLane="210_0" departPos="0.00" departSpeed="0.00" departDelay="0.00" arrival="173.50" arrivalLane="134b_0" arrivalPos="156.17" arrivalSpeed="12.30" duration="67.50" routeLength="692.71" waitingTime="0.00" waitingCount="0" stopTime="0.00" timeLoss="10.60" rerouteNo="0" devices="tripinfo_Pepoli_8_62" vType="passenger1" speedFactor="0.90" vaporized=""/>
    <tripinfo id="Silvani_11_33" depart="78.50" departLane="203[0]_0" departPos="0.00" departSpeed="0.00" departDelay="1.50" arrival="174.50" arrivalLane="114_1" arrivalPos="692.70" arrivalSpeed="14.12" duration="96.00" routeLength="1114.25" waitingTime="0.00" waitingCount="0" stopTime="0.00" timeLoss="18.51" rerouteNo="0" devices="tripinfo_Silvani_11_33" vType="passenger1" speedFactor="1.04" vaporized=""/>
    <tripinfo id="Pepoli_10_19" depart="32.00" departLane="210_1" departPos="0.00" departSpeed="0.00" departDelay="0.00" arrival="175.00" arrivalLane="204[1][1]_0" arrivalPos="435.51" arrivalSpeed="12.00" duration="143.00" routeLength="1470.65" waitingTime="10.50" waitingCount="1" stopTime="0.00" timeLoss="26.04" rerouteNo="0" devices="tripinfo_Pepoli_10_19" vType="passenger1" speedFactor="0.91" vaporized=""/>
    <tripinfo id="Silvani_11_23" depart="54.00" departLane="203[0]_0" departPos="0.00" departSpeed="0.00" departDelay="0.00" arrival="175.00" arrivalLane="114_0" arrivalPos="692.70" arrivalSpeed="12.51" duration="121.00" routeLength="1114.25" waitingTime="18.00" waitingCount="1" stopTime="0.00" timeLoss="32.78" rerouteNo="0" devices="tripinfo_Silvani_11_23" vType="passenger3" speedFactor="0.91" vaporized=""/>
    <tripinfo id="Pepoli_8_70" depart="120.50" departLane="210_0" departPos="0.00" departSpeed="0.00" departDelay="0.50" arrival="175.00" arrivalLane="134b_0" arrivalPos="156.17" arrivalSpeed="15.24" duration="54.50" routeLength="692.71" waitingTime="0.00" waitingCount="0" stopTime="0.00" timeLoss="8.57" rerouteNo="0" devices="tripinfo_Pepoli_8_70" vType="passenger1" speedFactor="1.11" vaporized=""/>
    <tripinfo id="Togliatti_71_0" depart="0.00" departLane="85_1" departPos="0.00" departSpeed="0.00" departDelay="0.00" arrival="176.00" arrivalLane="209_0" arrivalPos="395.59" arrivalSpeed="13.23" duration="176.00" routeLength="2025.50" waitingTime="15.50" waitingCount="1" stopTime="0.00" timeLoss="28.31" rerouteNo="0" devices="tripinfo_Togliatti_71_0" vType="passenger2b" speedFactor="1.00" vaporized=""/>
    <tripinfo id="Pepoli_10_18" depart="30.00" departLane="210_0" departPos="0.00" departSpeed="0.00" departDelay="0.00" arrival="176.00" arrivalLane="204[1][1]_1" arrivalPos="435.51" arrivalSpeed="14.10" duration="146.00" routeLength="1470.65" waitingTime="19.50" waitingCount="1" stopTime="0.00" timeLoss="45.26" rerouteNo="0" devices="tripinfo_Pepoli_10_18" vType="passenger1" speedFactor="1.05" vaporized=""/>
    <tripinfo id="Silvani_11_41" depart="96.00" departLane="203[0]_0" departPos="0.00" departSpeed="0.00" departDelay="0.00" arrival="176.50" arrivalLane="114_1" arrivalPos="692.70" arrivalSpeed="15.57" duration="80.50" routeLength="1114.25" waitingTime="0.00" waitingCount="0" stopTime="0.00" timeLoss="11.01" rerouteNo="0" devices="tripinfo_Silvani_11_41" vType="passenger1" speedFactor="1.16" vaporized=""/>
    <tripinfo id="Silvani_7_7" depart="16.00" departLane="203[0]_1" departPos="0.00" departSpeed="0.00" departDelay="0.00" arrival="177.50" arrivalLane="209_0" arrivalPos="395.59" arrivalSpeed="14.42" duration="161.50" routeLength="1454.90" waitingTime="47.50" waitingCount="1" stopTime="0.00" timeLoss="62.85" rerouteNo="0" devices="tripinfo_Silvani_7_7" vType="passenger2a" speedFactor="1.06" vaporized=""/>
    <tripinfo id="Costa_3_33" depart="86.00" departLane="78[0]_0" departPos="0.00" departSpeed="0.00" departDelay="0.00" arrival="178.50" arrivalLane="14_0" arrivalPos="77.26" arrivalSpeed="12.83" duration="92.50" routeLength="850.23" waitingTime="1.50" waitingCount="1" stopTime="0.00" timeLoss="26.92" rerouteNo="0" devices="tripinfo_Costa_3_33" vType="passenger2b" speedFactor="0.95" vaporized=""/>
    <tripinfo id="Pepoli_10_22" depart="37.00" departLane="210_1" departPos="0.00" departSpeed="0.00" departDelay="0.00" arrival="179.00" arrivalLane="204[1][1]_0" arrivalPos="435.51" arrivalSpeed="11.42" duration="142.00" routeLength="1470.65" waitingTime="5.50" waitingCount="1" stopTime="0.00" timeLoss="19.68" rerouteNo="0" devices="tripinfo_Pepoli_10_22" vType="passenger2a" speedFactor="0.87" vaporized=""/>
    <tripinfo id="Togliatti_3_18" depart="25.00" departLane="85_0" departPos="0.00" departSpeed="0.00" departDelay="0.00" arrival="180.00" arrivalLane="14_0" arrivalPos="77.26" arrivalSpeed="12.31" duration="155.00" routeLength="1110.28" waitingTime="47.50" waitingCount="1" stopTime="0.00" timeLoss="65.73" rerouteNo="0" devices="tripinfo_Togliatti_3_18" vType="passenger2a" speedFactor="0.92" vaporized=""/>
    <tripinfo id="Togliatti_2_32" depart="46.50" departLane="85_0" departPos="0.00" departSpeed="0.00" departDelay="1.50" arrival="180.00" arrivalLane="77[1][1]_0" arrivalPos="463.98" arrivalSpeed="13.78" duration="133.50" routeLength="1145.48" waitingTime="30.50" waitingCount="1" stopTime="0.00" timeLoss="51.60" rerouteNo="0" devices="tripinfo_Togliatti_2_32" vType="passenger3" speedFactor="1.04" vaporized=""/>
    <tripinfo id="Silvani_7_15" depart="35.00" departLane="203[0]_1" departPos="0.00" departSpeed="0.00" departDelay="0.00" arrival="181.00" arrivalLane="209_1" arrivalPos="395.59" arrivalSpeed="14.74" duration="146.00" routeLength="1451.40" waitingTime="29.50" waitingCount="1" stopTime="0.00" timeLoss="48.65" rerouteNo="0" devices="tripinfo_Silvani_7_15" vType="passenger5" speedFactor="1.08" vaporized=""/>
    <tripinfo id="Togliatti_3_31" depart="44.00" departLane="85_0" departPos="0.00" departSpeed="0.00" departDelay="0.00" arrival="181.50" arrivalLane="14_0" arrivalPos="77.26" arrivalSpeed="13.94" duration="137.50" routeLength="1107.06" waitingTime="34.50" waitingCount="2" stopTime="0.00" timeLoss="58.40" rerouteNo="0" devices="tripinfo_Togliatti_3_31" vType="passenger1" speedFactor="1.04" vaporized=""/>
    <tripinfo id="Silvani_11_39" depart="92.00" departLane="203[0]_0" departPos="0.00" departSpeed="0.00" departDelay="0.00" arrival="182.00" arrivalLane="114_0" arrivalPos="692.70" arrivalSpeed="13.06" duration="90.00" routeLength="1114.25" waitingTime="0.00" waitingCount="0" stopTime="0.00" timeLoss="7.83" rerouteNo="0" devices="tripinfo_Silvani_11_39" vType="passenger2a" speedFactor="0.98" vaporized=""/>
    <tripinfo id="Silvani_11_43" depart="101.00" departLane="203[0]_0" departPos="0.00" departSpeed="0.00" departDelay="0.00" arrival="183.00" arrivalLane="114_1" arrivalPos="692.70" arrivalSpeed="14.73" duration="82.00" routeLength="1114.25" waitingTime="0.00" waitingCount="0" stopTime="0.00" timeLoss="6.53" rerouteNo="0" devices="tripinfo_Silvani_11_43" vType="passenger2b" speedFactor="1.07" vaporized=""/>
    <tripinfo id="Turati_10_0" depart="0.00" departLane="195_0" departPos="0.00" departSpeed="0.00" departDelay="0.00" arrival="184.00" arrivalLane="204[1][1]_0" arrivalPos="435.51" arrivalSpeed="11.82" duration="184.00" routeLength="2032.35" waitingTime="0.00" waitingCount="0" stopTime="0.00" timeLoss="14.63" rerouteNo="0" devices="tripinfo_Turati_10_0" vType="passenger4" speedFactor="0.89" vaporized=""/>
    <tripinfo id="Silvani_7_2" depart="4.00" departLane="203[0]_1" departPos="0.00" departSpeed="0.00" departDelay="0.00" arrival="184.00" arrivalLane="209_0" arrivalPos="395.59" arrivalSpeed="12.76" duration="180.00" routeLength="1454.90" waitingTime="59.00" waitingCount="1" stopTime="0.00" timeLoss="69.49" rerouteNo="0" devices="tripinfo_Silvani_7_2" vType="passenger1" speedFactor="0.95" vaporized=""/>
    <tripinfo id="Silvani_11_44" depart="103.00" departLane="203[0]_0" departPos="0.00" departSpeed="0.00" departDelay="0.00" arrival="184.50" arrivalLane="114_1" arrivalPos="692.70" arrivalSpeed="14.61" duration="81.50" routeLength="1114.25" waitingTime="0.00" waitingCount="0" stopTime="0.00" timeLoss="6.73" rerouteNo="0" devices="tripinfo_Silvani_11_44" vType="passenger2b" speedFactor="1.08" vaporized=""/>
    <tripinfo id="Pepoli_8_75" depart="128.00" departLane="210_0" departPos="0.00" departSpeed="0.00" departDelay="0.00" arrival="185.50" arrivalLane="134b_0" arrivalPos="156.17" arrivalSpeed="16.74" duration="57.50" routeLength="692.71" waitingTime="0.00" waitingCount="0" stopTime="0.00" timeLoss="15.78" rerouteNo="0" devices="tripinfo_Pepoli_8_75" vType="passenger2b" speedFactor="1.22" vaporized=""/>